! AWR Design Environment (8316) Fri May 05 02:08:06 2017
! Document = 'Schematic 5'
! nPorts: 2, nXvals: 2001
! Variable c = 0.6

# HZ S DB R 50
!Freq DBS11 AngS11 DBS21 AngS21 DBS12 AngS12 DBS22 AngS22 
2e+009 -0.062336318 168.35167 -51.898456 -101.27406 -51.898424 -101.27406 -0.061270093 169.69522 
2.001e+009 -0.062365789 168.25344 -51.883945 -101.37123 -51.883913 -101.37123 -0.061296819 169.5996 
2.002e+009 -0.062395131 168.15519 -51.869429 -101.46843 -51.869398 -101.46843 -0.061323404 169.50396 
2.003e+009 -0.062424536 168.05691 -51.85491 -101.56565 -51.854878 -101.56565 -0.061350042 169.4083 
2.004e+009 -0.062454033 167.95862 -51.840388 -101.66289 -51.840357 -101.66288 -0.061376802 169.31263 
2.005e+009 -0.062483553 167.86029 -51.825864 -101.76014 -51.825832 -101.76014 -0.061403511 169.21694 
2.006e+009 -0.062513015 167.76195 -51.811334 -101.85743 -51.811302 -101.85743 -0.06143018 169.12122 
2.007e+009 -0.062542638 167.66357 -51.7968 -101.95474 -51.796769 -101.95473 -0.061457041 169.02549 
2.008e+009 -0.06257235 167.56517 -51.782264 -102.05206 -51.782233 -102.05206 -0.061483919 168.92974 
2.009e+009 -0.062601937 167.46676 -51.767725 -102.14941 -51.767694 -102.14941 -0.061510688 168.83397 
2.01e+009 -0.062631645 167.36831 -51.753181 -102.24678 -51.75315 -102.24678 -0.061537576 168.73818 
2.011e+009 -0.062661361 167.26984 -51.738633 -102.34418 -51.738602 -102.34417 -0.061564461 168.64237 
2.012e+009 -0.062691198 167.17135 -51.724083 -102.44159 -51.724052 -102.44159 -0.061591497 168.54654 
2.013e+009 -0.062720969 167.07283 -51.709529 -102.53903 -51.709498 -102.53903 -0.061618387 168.45069 
2.014e+009 -0.062750778 166.97429 -51.69497 -102.63649 -51.694939 -102.63649 -0.061645341 168.35482 
2.015e+009 -0.062780714 166.87572 -51.680408 -102.73397 -51.680377 -102.73397 -0.061672416 168.25894 
2.016e+009 -0.062810741 166.77713 -51.665843 -102.83148 -51.665812 -102.83147 -0.061699574 168.16303 
2.017e+009 -0.06284061 166.67852 -51.651274 -102.92901 -51.651243 -102.929 -0.061726562 168.0671 
2.018e+009 -0.062870579 166.57987 -51.6367 -103.02656 -51.636669 -103.02656 -0.061753674 167.97116 
2.019e+009 -0.062900679 166.4812 -51.622123 -103.12413 -51.622092 -103.12413 -0.061780845 167.87519 
2.02e+009 -0.062930769 166.38252 -51.607544 -103.22172 -51.607513 -103.22172 -0.061808032 167.77921 
2.021e+009 -0.062960866 166.2838 -51.59296 -103.31934 -51.592929 -103.31934 -0.061835216 167.68321 
2.022e+009 -0.062990999 166.18506 -51.578372 -103.41699 -51.578341 -103.41698 -0.061862427 167.58718 
2.023e+009 -0.063021228 166.08629 -51.563779 -103.51465 -51.563748 -103.51465 -0.061889725 167.49113 
2.024e+009 -0.063051519 165.9875 -51.549185 -103.61234 -51.549154 -103.61233 -0.061917078 167.39507 
2.025e+009 -0.063081779 165.88869 -51.534586 -103.71004 -51.534555 -103.71004 -0.061944391 167.29899 
2.026e+009 -0.063112078 165.78984 -51.519983 -103.80778 -51.519952 -103.80778 -0.061971733 167.20288 
2.027e+009 -0.063142416 165.69097 -51.505375 -103.90554 -51.505344 -103.90554 -0.061999104 167.10676 
2.028e+009 -0.063172901 165.59209 -51.490765 -104.00331 -51.490735 -104.00331 -0.062026618 167.01062 
2.029e+009 -0.063203303 165.49317 -51.476151 -104.10111 -51.476121 -104.10111 -0.062054035 166.91446 
2.03e+009 -0.063233834 165.39423 -51.461532 -104.19894 -51.461502 -104.19894 -0.062081577 166.81827 
2.031e+009 -0.063264337 165.29526 -51.44691 -104.29679 -51.446879 -104.29679 -0.062109081 166.72207 
2.032e+009 -0.063294901 165.19627 -51.432284 -104.39466 -51.432254 -104.39466 -0.062136635 166.62584 
2.033e+009 -0.063325471 165.09725 -51.417655 -104.49255 -51.417624 -104.49255 -0.062164187 166.5296 
2.034e+009 -0.063356114 164.9982 -51.40302 -104.59047 -51.40299 -104.59047 -0.062191802 166.43333 
2.035e+009 -0.063386791 164.89913 -51.388382 -104.68842 -51.388352 -104.68842 -0.062219443 166.33705 
2.036e+009 -0.063417498 164.80003 -51.373741 -104.78638 -51.373711 -104.78638 -0.062247107 166.24074 
2.037e+009 -0.063448305 164.70091 -51.359096 -104.88437 -51.359066 -104.88436 -0.062274827 166.14442 
2.038e+009 -0.063479122 164.60176 -51.344446 -104.98238 -51.344415 -104.98238 -0.062302614 166.04807 
2.039e+009 -0.063509973 164.50259 -51.329791 -105.08042 -51.329761 -105.08042 -0.062330394 165.9517 
2.04e+009 -0.063540856 164.40339 -51.315135 -105.17848 -51.315105 -105.17848 -0.062358196 165.85532 
2.041e+009 -0.063571779 164.30417 -51.300474 -105.27656 -51.300444 -105.27656 -0.062386031 165.75891 
2.042e+009 -0.063602714 164.20491 -51.285807 -105.37467 -51.285778 -105.37467 -0.062413865 165.66248 
2.043e+009 -0.063633771 164.10563 -51.271138 -105.4728 -51.271108 -105.4728 -0.062441783 165.56603 
2.044e+009 -0.063664866 164.00633 -51.256465 -105.57096 -51.256435 -105.57095 -0.062469795 165.46956 
2.045e+009 -0.063695849 163.907 -51.241788 -105.66913 -51.241758 -105.66913 -0.062497645 165.37307 
2.046e+009 -0.063727081 163.80764 -51.227106 -105.76734 -51.227076 -105.76734 -0.062525746 165.27656 
2.047e+009 -0.063758296 163.70825 -51.212419 -105.86557 -51.21239 -105.86557 -0.062553817 165.18002 
2.048e+009 -0.063789482 163.60884 -51.19773 -105.96382 -51.1977 -105.96382 -0.062581847 165.08347 
2.049e+009 -0.06382076 163.50941 -51.183037 -106.06209 -51.183007 -106.06209 -0.062609962 164.9869 
2.05e+009 -0.06385203 163.40994 -51.168338 -106.1604 -51.168309 -106.16039 -0.062638057 164.8903 
2.051e+009 -0.063883422 163.31045 -51.153636 -106.25872 -51.153606 -106.25872 -0.062666268 164.79368 
2.052e+009 -0.063914793 163.21094 -51.13893 -106.35707 -51.138901 -106.35707 -0.062694445 164.69704 
2.053e+009 -0.063946233 163.11139 -51.12422 -106.45544 -51.124191 -106.45544 -0.062722684 164.60039 
2.054e+009 -0.063977803 163.01182 -51.109506 -106.55384 -51.109476 -106.55384 -0.062751047 164.50371 
2.055e+009 -0.064009264 162.91222 -51.094786 -106.65226 -51.094757 -106.65226 -0.062779285 164.40701 
2.056e+009 -0.064040941 162.8126 -51.080064 -106.75071 -51.080035 -106.7507 -0.062807736 164.31028 
2.057e+009 -0.06407251 162.71295 -51.065338 -106.84918 -51.065309 -106.84917 -0.062836061 164.21354 
2.058e+009 -0.064104177 162.61327 -51.050606 -106.94767 -51.050577 -106.94767 -0.062864482 164.11677 
2.059e+009 -0.064135891 162.51356 -51.03587 -107.0462 -51.035841 -107.0462 -0.062892939 164.01998 
2.06e+009 -0.064167613 162.41383 -51.021131 -107.14474 -51.021102 -107.14474 -0.062921357 163.92318 
2.061e+009 -0.064199424 162.31407 -51.006388 -107.24331 -51.006359 -107.24331 -0.062949925 163.82635 
2.062e+009 -0.064231198 162.21428 -50.991639 -107.34191 -50.99161 -107.34191 -0.062978407 163.72949 
2.063e+009 -0.064263073 162.11446 -50.976886 -107.44053 -50.976857 -107.44053 -0.063006983 163.63262 
2.064e+009 -0.06429504 162.01462 -50.96213 -107.53917 -50.962101 -107.53917 -0.063035647 163.53573 
2.065e+009 -0.064327026 161.91476 -50.947369 -107.63784 -50.94734 -107.63784 -0.063064314 163.43881 
2.066e+009 -0.064359108 161.81486 -50.932603 -107.73654 -50.932574 -107.73654 -0.063093072 163.34187 
2.067e+009 -0.064391092 161.71493 -50.917833 -107.83527 -50.917804 -107.83526 -0.063121715 163.24491 
2.068e+009 -0.064423223 161.61498 -50.90306 -107.93401 -50.903031 -107.934 -0.06315047 163.14793 
2.069e+009 -0.064455312 161.515 -50.888282 -108.03278 -50.888253 -108.03278 -0.06317923 163.05093 
2.07e+009 -0.064487623 161.41499 -50.873499 -108.13157 -50.87347 -108.13157 -0.063208178 162.9539 
2.071e+009 -0.064519716 161.31495 -50.858711 -108.2304 -50.858682 -108.2304 -0.063236889 162.85685 
2.072e+009 -0.064552085 161.21489 -50.84392 -108.32925 -50.843892 -108.32924 -0.063265873 162.75978 
2.073e+009 -0.064584394 161.1148 -50.829126 -108.42812 -50.829097 -108.42811 -0.063294784 162.66269 
2.074e+009 -0.064616708 161.01467 -50.814324 -108.52702 -50.814295 -108.52702 -0.063323687 162.56557 
2.075e+009 -0.064649258 160.91452 -50.799519 -108.62594 -50.79949 -108.62594 -0.063352824 162.46844 
2.076e+009 -0.06468162 160.81435 -50.78471 -108.72489 -50.784682 -108.72489 -0.063381754 162.37128 
2.077e+009 -0.064714142 160.71414 -50.769897 -108.82387 -50.769869 -108.82387 -0.063410838 162.2741 
2.078e+009 -0.064746733 160.61391 -50.755079 -108.92287 -50.75505 -108.92287 -0.063439983 162.17689 
2.079e+009 -0.064779372 160.51365 -50.740256 -109.0219 -50.740228 -109.0219 -0.063469163 162.07967 
2.08e+009 -0.064812027 160.41336 -50.725429 -109.12095 -50.725401 -109.12095 -0.063498315 161.98242 
2.081e+009 -0.064844726 160.31304 -50.710598 -109.22003 -50.71057 -109.22003 -0.063527568 161.88515 
2.082e+009 -0.06487747 160.21269 -50.695762 -109.31914 -50.695733 -109.31913 -0.063556821 161.78786 
2.083e+009 -0.06491026 160.11231 -50.68092 -109.41827 -50.680892 -109.41827 -0.06358611 161.69053 
2.084e+009 -0.064943059 160.01191 -50.666076 -109.51742 -50.666048 -109.51742 -0.063615397 161.5932 
2.085e+009 -0.06497596 159.91148 -50.651227 -109.61661 -50.651199 -109.6166 -0.063644778 161.49584 
2.086e+009 -0.06500886 159.81101 -50.636371 -109.71582 -50.636343 -109.71582 -0.063674143 161.39845 
2.087e+009 -0.065041942 159.71052 -50.621512 -109.81506 -50.621484 -109.81506 -0.063703685 161.30104 
2.088e+009 -0.065074956 159.61 -50.606649 -109.91432 -50.606621 -109.91432 -0.063733146 161.20362 
2.089e+009 -0.065108034 159.50946 -50.591782 -110.0136 -50.591754 -110.0136 -0.063762659 161.10617 
2.09e+009 -0.065141203 159.40887 -50.576908 -110.11292 -50.57688 -110.11292 -0.063792224 161.00869 
2.091e+009 -0.065174358 159.30827 -50.56203 -110.21227 -50.562002 -110.21226 -0.063821792 160.91119 
2.092e+009 -0.065207521 159.20763 -50.547148 -110.31163 -50.54712 -110.31163 -0.063851388 160.81367 
2.093e+009 -0.065240852 159.10697 -50.532262 -110.41103 -50.532234 -110.41103 -0.063881081 160.71612 
2.094e+009 -0.065274194 159.00627 -50.51737 -110.51045 -50.517342 -110.51045 -0.063910839 160.61856 
2.095e+009 -0.065307534 158.90554 -50.502473 -110.6099 -50.502445 -110.6099 -0.063940517 160.52097 
2.096e+009 -0.065340947 158.80479 -50.487573 -110.70938 -50.487545 -110.70937 -0.063970289 160.42335 
2.097e+009 -0.06537449 158.70401 -50.472668 -110.80888 -50.47264 -110.80887 -0.064000214 160.32572 
2.098e+009 -0.065407886 158.6032 -50.457757 -110.90841 -50.457729 -110.90841 -0.064029943 160.22806 
2.099e+009 -0.065441579 158.50235 -50.442841 -111.00797 -50.442813 -111.00796 -0.064059939 160.13037 
2.1e+009 -0.065475208 158.40148 -50.427921 -111.10755 -50.427894 -111.10754 -0.064089884 160.03266 
2.101e+009 -0.065508805 158.30058 -50.412997 -111.20716 -50.412969 -111.20715 -0.064119782 159.93493 
2.102e+009 -0.065542504 158.19965 -50.398067 -111.3068 -50.398039 -111.30679 -0.064149802 159.83718 
2.103e+009 -0.065576311 158.09868 -50.383131 -111.40647 -50.383104 -111.40646 -0.064179863 159.73939 
2.104e+009 -0.065610045 157.9977 -50.368193 -111.50615 -50.368166 -111.50615 -0.064209895 159.6416 
2.105e+009 -0.065643917 157.89668 -50.353249 -111.60587 -50.353222 -111.60587 -0.064240029 159.54377 
2.106e+009 -0.065677808 157.79562 -50.3383 -111.70562 -50.338273 -111.70562 -0.064270138 159.44592 
2.107e+009 -0.06571181 157.69454 -50.323345 -111.8054 -50.323318 -111.8054 -0.064300377 159.34805 
2.108e+009 -0.065745858 157.59343 -50.308387 -111.9052 -50.308359 -111.9052 -0.064330683 159.25015 
2.109e+009 -0.065779922 157.49229 -50.293424 -112.00502 -50.293397 -112.00502 -0.06436096 159.15224 
2.11e+009 -0.065813991 157.39111 -50.278455 -112.10489 -50.278427 -112.10489 -0.06439123 159.05429 
2.111e+009 -0.065848157 157.28991 -50.263481 -112.20477 -50.263453 -112.20477 -0.064421587 158.95632 
2.112e+009 -0.065882403 157.18867 -50.248503 -112.30468 -50.248475 -112.30468 -0.064452014 158.85833 
2.113e+009 -0.065916663 157.08742 -50.23352 -112.40462 -50.233493 -112.40462 -0.064482412 158.76031 
2.114e+009 -0.06595099 156.98612 -50.21853 -112.50459 -50.218503 -112.50459 -0.064512895 158.66227 
2.115e+009 -0.065985357 156.88479 -50.203536 -112.60459 -50.203509 -112.60459 -0.064543437 158.5642 
2.116e+009 -0.066019752 156.78343 -50.188538 -112.70461 -50.188511 -112.70461 -0.064573962 158.46612 
2.117e+009 -0.066054266 156.68205 -50.173536 -112.80466 -50.173508 -112.80466 -0.06460457 158.36801 
2.118e+009 -0.066088742 156.58063 -50.158526 -112.90475 -50.158499 -112.90475 -0.064635153 158.26987 
2.119e+009 -0.066123373 156.47918 -50.143511 -113.00486 -50.143485 -113.00486 -0.064665882 158.1717 
2.12e+009 -0.066157943 156.3777 -50.128493 -113.10499 -50.128466 -113.10499 -0.064696535 158.07352 
2.121e+009 -0.066192616 156.27619 -50.11347 -113.20516 -50.113443 -113.20515 -0.064727315 157.97531 
2.122e+009 -0.066227398 156.17465 -50.09844 -113.30535 -50.098413 -113.30535 -0.064758128 157.87707 
2.123e+009 -0.066262209 156.07307 -50.083406 -113.40558 -50.083379 -113.40557 -0.06478899 157.77881 
2.124e+009 -0.066296983 155.97147 -50.068367 -113.50582 -50.06834 -113.50582 -0.064819827 157.68053 
2.125e+009 -0.06633192 155.86984 -50.053322 -113.6061 -50.053296 -113.6061 -0.064850794 157.58222 
2.126e+009 -0.066366809 155.76817 -50.038272 -113.70641 -50.038246 -113.70641 -0.064881692 157.48388 
2.127e+009 -0.066401828 155.66647 -50.023218 -113.80675 -50.023192 -113.80674 -0.064912714 157.38553 
2.128e+009 -0.066436896 155.56474 -50.008157 -113.90711 -50.008131 -113.90711 -0.064943772 157.28714 
2.129e+009 -0.066471993 155.46298 -49.993093 -114.00751 -49.993066 -114.0075 -0.064974844 157.18874 
2.13e+009 -0.066507143 155.36118 -49.978022 -114.10793 -49.977995 -114.10793 -0.06500593 157.0903 
2.131e+009 -0.066542424 155.25935 -49.962946 -114.20838 -49.962919 -114.20838 -0.065037168 156.99184 
2.132e+009 -0.066577661 155.1575 -49.947865 -114.30886 -49.947838 -114.30886 -0.06506834 156.89336 
2.133e+009 -0.066613025 155.05561 -49.932779 -114.40937 -49.932753 -114.40937 -0.065099635 156.79486 
2.134e+009 -0.066648389 154.95369 -49.917687 -114.50991 -49.91766 -114.50991 -0.065130913 156.69632 
2.135e+009 -0.066683807 154.85174 -49.90259 -114.61047 -49.902564 -114.61047 -0.065162233 156.59776 
2.136e+009 -0.066719309 154.74975 -49.887487 -114.71107 -49.887461 -114.71107 -0.065193626 156.49918 
2.137e+009 -0.066754814 154.64774 -49.87238 -114.8117 -49.872354 -114.8117 -0.065225033 156.40057 
2.138e+009 -0.066790426 154.54568 -49.857266 -114.91235 -49.85724 -114.91235 -0.065256481 156.30193 
2.139e+009 -0.066826065 154.4436 -49.842147 -115.01304 -49.842121 -115.01304 -0.065288001 156.20327 
2.14e+009 -0.066861732 154.34149 -49.827024 -115.11375 -49.826998 -115.11375 -0.065319505 156.10459 
2.141e+009 -0.066897533 154.23934 -49.811896 -115.2145 -49.81187 -115.21449 -0.065351107 156.00588 
2.142e+009 -0.066933392 154.13716 -49.79676 -115.31527 -49.796734 -115.31527 -0.065382781 155.90714 
2.143e+009 -0.066969152 154.03495 -49.781621 -115.41607 -49.781595 -115.41607 -0.065414365 155.80838 
2.144e+009 -0.067005149 153.93271 -49.766474 -115.51691 -49.766448 -115.51691 -0.065446152 155.70959 
2.145e+009 -0.067041125 153.83043 -49.751324 -115.61777 -49.751298 -115.61777 -0.065477875 155.61078 
2.146e+009 -0.067077152 153.72812 -49.736166 -115.71866 -49.736141 -115.71866 -0.065509661 155.51194 
2.147e+009 -0.067113293 153.62578 -49.721005 -115.81958 -49.720979 -115.81958 -0.065541556 155.41308 
2.148e+009 -0.067149385 153.5234 -49.705837 -115.92054 -49.705811 -115.92054 -0.06557338 155.31418 
2.149e+009 -0.067185559 153.42099 -49.690664 -116.02152 -49.690638 -116.02152 -0.065605304 155.21527 
2.15e+009 -0.067221847 153.31855 -49.675484 -116.12253 -49.675458 -116.12253 -0.065637271 155.11632 
2.151e+009 -0.067258163 153.21607 -49.6603 -116.22357 -49.660274 -116.22357 -0.065669311 155.01736 
2.152e+009 -0.067294509 153.11357 -49.64511 -116.32465 -49.645085 -116.32464 -0.065701339 154.91837 
2.153e+009 -0.067330935 153.01103 -49.629915 -116.42575 -49.62989 -116.42574 -0.065733441 154.81935 
2.154e+009 -0.067367476 152.90846 -49.614715 -116.52688 -49.614689 -116.52688 -0.065765606 154.7203 
2.155e+009 -0.067404006 152.80584 -49.599506 -116.62805 -49.599481 -116.62805 -0.065797806 154.62122 
2.156e+009 -0.067440584 152.7032 -49.584294 -116.72924 -49.584268 -116.72924 -0.06583001 154.52213 
2.157e+009 -0.067477295 152.60053 -49.569077 -116.83046 -49.569051 -116.83046 -0.065862339 154.42301 
2.158e+009 -0.067514024 152.49782 -49.553851 -116.93172 -49.553825 -116.93172 -0.065894643 154.32384 
2.159e+009 -0.06755078 152.39508 -49.538621 -117.03301 -49.538596 -117.03301 -0.065927014 154.22467 
2.16e+009 -0.067587649 152.2923 -49.523386 -117.13432 -49.523361 -117.13432 -0.065959431 154.12546 
2.161e+009 -0.067624515 152.18949 -49.508146 -117.23566 -49.50812 -117.23566 -0.065991857 154.02624 
2.162e+009 -0.067661502 152.08665 -49.4929 -117.33704 -49.492874 -117.33704 -0.066024395 153.92698 
2.163e+009 -0.067698478 151.98377 -49.477645 -117.43846 -49.477619 -117.43846 -0.066056899 153.82769 
2.164e+009 -0.067735552 151.88086 -49.462387 -117.53989 -49.462362 -117.53989 -0.066089522 153.72838 
2.165e+009 -0.067772717 151.77792 -49.447123 -117.64136 -49.447098 -117.64136 -0.066122167 153.62905 
2.166e+009 -0.067809898 151.67493 -49.431851 -117.74287 -49.431826 -117.74287 -0.066154866 153.52968 
2.167e+009 -0.067847109 151.57192 -49.416575 -117.8444 -49.41655 -117.8444 -0.066187552 153.43029 
2.168e+009 -0.0678845 151.46887 -49.401294 -117.94596 -49.401269 -117.94596 -0.066220385 153.33087 
2.169e+009 -0.067921829 151.36579 -49.386007 -118.04756 -49.385982 -118.04756 -0.066253162 153.23143 
2.17e+009 -0.067959273 151.26267 -49.370714 -118.14918 -49.370689 -118.14918 -0.06628604 153.13196 
2.171e+009 -0.067996754 151.15952 -49.355412 -118.25085 -49.355387 -118.25084 -0.066318942 153.03245 
2.172e+009 -0.068034299 151.05633 -49.340107 -118.35253 -49.340082 -118.35253 -0.066351922 152.93293 
2.173e+009 -0.068071952 150.95311 -49.324796 -118.45425 -49.324771 -118.45425 -0.066384942 152.83338 
2.174e+009 -0.068109597 150.84985 -49.309476 -118.55601 -49.309451 -118.55601 -0.066417991 152.73379 
2.175e+009 -0.068147346 150.74656 -49.294153 -118.65779 -49.294129 -118.65779 -0.066451104 152.63418 
2.176e+009 -0.068185107 150.64324 -49.278824 -118.75961 -49.278799 -118.75961 -0.066484187 152.53455 
2.177e+009 -0.068222957 150.53988 -49.263489 -118.86146 -49.263464 -118.86145 -0.066517372 152.43489 
2.178e+009 -0.068260869 150.43649 -49.248148 -118.96333 -49.248123 -118.96333 -0.066550629 152.3352 
2.179e+009 -0.068298856 150.33305 -49.232798 -119.06525 -49.232773 -119.06525 -0.066583897 152.23548 
2.18e+009 -0.068336866 150.22958 -49.217445 -119.16719 -49.21742 -119.16719 -0.066617223 152.13573 
2.181e+009 -0.068374968 150.12609 -49.202085 -119.26916 -49.20206 -119.26916 -0.066650601 152.03596 
2.182e+009 -0.068413193 150.02255 -49.186717 -119.37118 -49.186693 -119.37118 -0.066684065 151.93616 
2.183e+009 -0.068451349 149.91897 -49.171345 -119.47322 -49.17132 -119.47322 -0.066717491 151.83633 
2.184e+009 -0.068489623 149.81537 -49.155966 -119.57529 -49.155942 -119.57529 -0.066750968 151.73647 
2.185e+009 -0.068527951 149.71173 -49.140583 -119.67739 -49.140559 -119.67739 -0.066784515 151.63659 
2.186e+009 -0.068566443 149.60805 -49.125192 -119.77953 -49.125168 -119.77952 -0.066818213 151.53668 
2.187e+009 -0.06860489 149.50433 -49.109793 -119.8817 -49.109769 -119.8817 -0.066851844 151.43674 
2.188e+009 -0.068643389 149.40058 -49.094391 -119.9839 -49.094366 -119.9839 -0.066885539 151.33678 
2.189e+009 -0.068681982 149.2968 -49.078981 -120.08614 -49.078957 -120.08613 -0.066919264 151.23678 
2.19e+009 -0.068720624 149.19297 -49.063563 -120.18841 -49.063539 -120.18841 -0.066953043 151.13675 
2.191e+009 -0.068759395 149.08911 -49.048141 -120.2907 -49.048117 -120.2907 -0.066986943 151.0367 
2.192e+009 -0.068798131 148.98522 -49.032713 -120.39304 -49.032689 -120.39303 -0.067020817 150.93662 
2.193e+009 -0.068837036 148.88129 -49.017279 -120.4954 -49.017255 -120.4954 -0.067054792 150.83652 
2.194e+009 -0.06887597 148.77733 -49.001838 -120.59779 -49.001814 -120.59779 -0.067088834 150.73639 
2.195e+009 -0.068914941 148.67332 -48.986389 -120.70023 -48.986365 -120.70023 -0.067122844 150.63621 
2.196e+009 -0.068953947 148.56928 -48.970935 -120.8027 -48.970911 -120.8027 -0.067156922 150.53602 
2.197e+009 -0.068993084 148.46521 -48.955475 -120.90519 -48.955451 -120.90519 -0.067191074 150.4358 
2.198e+009 -0.069032233 148.36109 -48.940006 -121.00773 -48.939982 -121.00773 -0.067225233 150.33554 
2.199e+009 -0.069071507 148.25694 -48.924532 -121.11029 -48.924509 -121.11029 -0.067259512 150.23527 
2.2e+009 -0.069110783 148.15276 -48.909053 -121.21289 -48.909029 -121.21289 -0.067293772 150.13496 
2.201e+009 -0.069150168 148.04854 -48.893568 -121.31552 -48.893544 -121.31551 -0.067328128 150.03463 
2.202e+009 -0.069189595 147.94429 -48.878075 -121.41818 -48.878051 -121.41818 -0.067362512 149.93426 
2.203e+009 -0.06922913 147.83998 -48.862573 -121.52089 -48.86255 -121.52088 -0.067396984 149.83386 
2.204e+009 -0.069268639 147.73565 -48.847069 -121.62361 -48.847045 -121.62361 -0.06743144 149.73344 
2.205e+009 -0.069308298 147.63128 -48.831556 -121.72638 -48.831532 -121.72637 -0.067465985 149.63299 
2.206e+009 -0.069347989 147.52686 -48.816035 -121.82918 -48.816011 -121.82918 -0.067500562 149.53251 
2.207e+009 -0.069387778 147.42243 -48.80051 -121.93201 -48.800486 -121.93201 -0.067535255 149.432 
2.208e+009 -0.069427527 147.31795 -48.784977 -122.03488 -48.784954 -122.03487 -0.067569832 149.33146 
2.209e+009 -0.069467463 147.21343 -48.769438 -122.13778 -48.769415 -122.13777 -0.067604612 149.23089 
2.21e+009 -0.06950741 147.10887 -48.753894 -122.24071 -48.75387 -122.24071 -0.067639385 149.1303 
2.211e+009 -0.069547447 147.00427 -48.738339 -122.34368 -48.738315 -122.34368 -0.067674229 149.02967 
2.212e+009 -0.069587565 146.89964 -48.72278 -122.44668 -48.722756 -122.44668 -0.067709143 148.92902 
2.213e+009 -0.0696277 146.79498 -48.707214 -122.54972 -48.707191 -122.54971 -0.067744054 148.82834 
2.214e+009 -0.069667985 146.69026 -48.691639 -122.6528 -48.691616 -122.65279 -0.0677791 148.72761 
2.215e+009 -0.069708222 146.58552 -48.67606 -122.7559 -48.676037 -122.7559 -0.067814078 148.62687 
2.216e+009 -0.069748644 146.48074 -48.660474 -122.85904 -48.660451 -122.85903 -0.067849228 148.5261 
2.217e+009 -0.069789065 146.37592 -48.644882 -122.96221 -48.644858 -122.96221 -0.067884359 148.4253 
2.218e+009 -0.069829529 146.27106 -48.629282 -123.06542 -48.629259 -123.06541 -0.06791952 148.32447 
2.219e+009 -0.069870176 146.16616 -48.613673 -123.16867 -48.61365 -123.16866 -0.06795484 148.2236 
2.22e+009 -0.069910831 146.06122 -48.59806 -123.27194 -48.598037 -123.27194 -0.067990182 148.12271 
2.221e+009 -0.069951492 145.95625 -48.58244 -123.37526 -48.582417 -123.37525 -0.068025463 148.02179 
2.222e+009 -0.069992253 145.85123 -48.56681 -123.47861 -48.566786 -123.47861 -0.068060841 147.92083 
2.223e+009 -0.07003313 145.74618 -48.551176 -123.58199 -48.551152 -123.58199 -0.068096328 147.81985 
2.224e+009 -0.070074098 145.6411 -48.535535 -123.68541 -48.535512 -123.6854 -0.068131894 147.71884 
2.225e+009 -0.070115024 145.53597 -48.519886 -123.78886 -48.519863 -123.78886 -0.068167411 147.6178 
2.226e+009 -0.07015607 145.4308 -48.504231 -123.89235 -48.504208 -123.89234 -0.068202989 147.51673 
2.227e+009 -0.07019726 145.32559 -48.488567 -123.99587 -48.488544 -123.99587 -0.068238719 147.41563 
2.228e+009 -0.070238388 145.22035 -48.472897 -124.09943 -48.472874 -124.09943 -0.068274364 147.3145 
2.229e+009 -0.070279657 145.11507 -48.45722 -124.20303 -48.457197 -124.20302 -0.068310137 147.21333 
2.23e+009 -0.070320976 145.00974 -48.441535 -124.30666 -48.441512 -124.30666 -0.06834594 147.11213 
2.231e+009 -0.070362432 144.90438 -48.425844 -124.41032 -48.425821 -124.41032 -0.068381868 147.01091 
2.232e+009 -0.070403925 144.79898 -48.410146 -124.51402 -48.410123 -124.51402 -0.068417814 146.90966 
2.233e+009 -0.070445433 144.69354 -48.394442 -124.61775 -48.394419 -124.61775 -0.068453753 146.80838 
2.234e+009 -0.070487048 144.58806 -48.378729 -124.72153 -48.378707 -124.72152 -0.068489782 146.70707 
2.235e+009 -0.070528766 144.48254 -48.363007 -124.82534 -48.362984 -124.82534 -0.068525899 146.60571 
2.236e+009 -0.070570548 144.37698 -48.347281 -124.92918 -48.347258 -124.92918 -0.068562062 146.50434 
2.237e+009 -0.070612402 144.27138 -48.331547 -125.03306 -48.331524 -125.03306 -0.068598278 146.40293 
2.238e+009 -0.070654299 144.16574 -48.315803 -125.13698 -48.31578 -125.13698 -0.068634521 146.30149 
2.239e+009 -0.070696269 144.06006 -48.300055 -125.24093 -48.300032 -125.24093 -0.068670811 146.20002 
2.24e+009 -0.070738335 143.95434 -48.284299 -125.34492 -48.284276 -125.34492 -0.068707184 146.09852 
2.241e+009 -0.070780465 143.84859 -48.268536 -125.44894 -48.268513 -125.44894 -0.068743605 145.997 
2.242e+009 -0.070822599 143.7428 -48.252765 -125.553 -48.252743 -125.553 -0.068780003 145.89544 
2.243e+009 -0.070864942 143.63695 -48.236985 -125.6571 -48.236962 -125.6571 -0.068816603 145.79384 
2.244e+009 -0.07090729 143.53107 -48.221199 -125.76123 -48.221176 -125.76123 -0.068853183 145.69221 
2.245e+009 -0.070949709 143.42516 -48.205406 -125.8654 -48.205384 -125.8654 -0.068889817 145.59056 
2.246e+009 -0.070992176 143.31919 -48.189603 -125.96962 -48.189581 -125.96961 -0.068926479 145.48887 
2.247e+009 -0.071034769 143.21319 -48.173795 -126.07385 -48.173773 -126.07385 -0.06896325 145.38715 
2.248e+009 -0.071077449 143.10716 -48.15798 -126.17813 -48.157958 -126.17813 -0.069000091 145.28541 
2.249e+009 -0.07112011 143.00108 -48.142158 -126.28244 -48.142135 -126.28244 -0.069036892 145.18363 
2.25e+009 -0.071162966 142.89496 -48.126327 -126.3868 -48.126305 -126.3868 -0.069073847 145.08182 
2.251e+009 -0.071205778 142.78879 -48.110486 -126.4912 -48.110464 -126.4912 -0.06911078 144.97996 
2.252e+009 -0.071248762 142.68259 -48.094641 -126.59562 -48.094619 -126.59562 -0.06914785 144.87809 
2.253e+009 -0.071291769 142.57635 -48.078787 -126.70008 -48.078765 -126.70008 -0.069184921 144.77619 
2.254e+009 -0.071334878 142.47006 -48.062924 -126.80459 -48.062902 -126.80459 -0.069222079 144.67424 
2.255e+009 -0.071378037 142.36373 -48.047055 -126.90913 -48.047033 -126.90913 -0.069259256 144.57227 
2.256e+009 -0.071421219 142.25736 -48.031179 -127.01371 -48.031157 -127.01371 -0.069296441 144.47027 
2.257e+009 -0.071464622 142.15096 -48.015295 -127.11831 -48.015273 -127.11831 -0.069333835 144.36824 
2.258e+009 -0.071507955 142.04451 -47.999403 -127.22297 -47.999381 -127.22296 -0.069371131 144.26617 
2.259e+009 -0.071551509 141.93801 -47.983501 -127.32766 -47.983479 -127.32766 -0.069408639 144.16406 
2.26e+009 -0.071595017 141.83148 -47.967594 -127.43239 -47.967572 -127.43238 -0.069446071 144.06194 
2.261e+009 -0.071638642 141.72491 -47.951678 -127.53715 -47.951656 -127.53715 -0.069483604 143.95978 
2.262e+009 -0.071682367 141.61829 -47.935753 -127.64196 -47.935731 -127.64196 -0.069521219 143.85758 
2.263e+009 -0.07172615 141.51163 -47.919822 -127.7468 -47.9198 -127.74679 -0.069558869 143.75535 
2.264e+009 -0.071769973 141.40493 -47.903883 -127.85168 -47.903861 -127.85167 -0.069596538 143.65309 
2.265e+009 -0.071813932 141.29819 -47.887936 -127.95659 -47.887914 -127.95658 -0.069634326 143.5508 
2.266e+009 -0.071857955 141.19141 -47.871981 -128.06154 -47.87196 -128.06154 -0.069672137 143.44848 
2.267e+009 -0.071902029 141.08457 -47.856016 -128.16654 -47.855994 -128.16654 -0.069710024 143.34611 
2.268e+009 -0.071946238 140.97771 -47.840045 -128.27157 -47.840023 -128.27157 -0.069747998 143.24373 
2.269e+009 -0.071990489 140.8708 -47.824066 -128.37664 -47.824044 -128.37663 -0.069786 143.1413 
2.27e+009 -0.072034808 140.76384 -47.808077 -128.48175 -47.808056 -128.48175 -0.069824041 143.03884 
2.271e+009 -0.072079206 140.65684 -47.792082 -128.5869 -47.792061 -128.58689 -0.069862146 142.93635 
2.272e+009 -0.072123725 140.54981 -47.776079 -128.69208 -47.776057 -128.69207 -0.069900358 142.83383 
2.273e+009 -0.072168268 140.44273 -47.760068 -128.7973 -47.760046 -128.7973 -0.069938537 142.73128 
2.274e+009 -0.072212851 140.3356 -47.744048 -128.90256 -47.744027 -128.90256 -0.069976784 142.6287 
2.275e+009 -0.072257648 140.22843 -47.728019 -129.00787 -47.727997 -129.00786 -0.070015184 142.52607 
2.276e+009 -0.072302464 140.12122 -47.711983 -129.11321 -47.711961 -129.1132 -0.070053629 142.42342 
2.277e+009 -0.072347357 140.01397 -47.695939 -129.21858 -47.695918 -129.21858 -0.070092105 142.32073 
2.278e+009 -0.072392328 139.90666 -47.679884 -129.32401 -47.679863 -129.324 -0.070130611 142.21801 
2.279e+009 -0.072437372 139.79932 -47.663824 -129.42946 -47.663802 -129.42946 -0.07016922 142.11525 
2.28e+009 -0.072482526 139.69195 -47.647755 -129.53496 -47.647733 -129.53495 -0.070207892 142.01247 
2.281e+009 -0.072527721 139.58452 -47.631677 -129.64049 -47.631656 -129.64049 -0.070246584 141.90965 
2.282e+009 -0.072573041 139.47706 -47.615592 -129.74606 -47.615571 -129.74606 -0.070285384 141.8068 
2.283e+009 -0.072618399 139.36953 -47.599495 -129.85168 -47.599474 -129.85168 -0.070324194 141.7039 
2.284e+009 -0.072663839 139.26197 -47.583393 -129.95734 -47.583372 -129.95734 -0.070363065 141.60098 
2.285e+009 -0.072709396 139.15438 -47.567283 -130.06303 -47.567262 -130.06303 -0.070402035 141.49803 
2.286e+009 -0.072755008 139.04672 -47.551161 -130.16877 -47.55114 -130.16877 -0.070441036 141.39503 
2.287e+009 -0.072800745 138.93904 -47.535033 -130.27454 -47.535012 -130.27454 -0.070480144 141.29202 
2.288e+009 -0.072846505 138.8313 -47.518896 -130.38035 -47.518876 -130.38035 -0.070519246 141.18896 
2.289e+009 -0.072892368 138.72353 -47.502752 -130.4862 -47.502731 -130.4862 -0.070558417 141.08587 
2.29e+009 -0.072938345 138.61571 -47.486599 -130.5921 -47.486578 -130.59209 -0.070597717 140.98275 
2.291e+009 -0.072984401 138.50783 -47.470433 -130.69804 -47.470413 -130.69803 -0.07063705 140.87958 