! AWR Design Environment (8316) Fri May 05 02:08:06 2017
! Document = 'Schematic 5'
! nPorts: 2, nXvals: 2001
! Variable c = 0.55

# HZ S DB R 50
!Freq DBS11 AngS11 DBS21 AngS21 DBS12 AngS12 DBS22 AngS22 
2e+009 -0.062073594 171.96038 -52.706919 -97.693731 -52.706883 -97.693729 -0.061092876 173.22249 
2.001e+009 -0.062101553 171.86481 -52.692934 -97.788326 -52.692898 -97.788323 -0.061118391 173.12934 
2.002e+009 -0.062129363 171.76922 -52.678946 -97.882942 -52.67891 -97.882939 -0.061143746 173.03617 
2.003e+009 -0.062157233 171.67361 -52.664954 -97.97758 -52.664918 -97.977577 -0.061169153 172.94298 
2.004e+009 -0.062185195 171.57798 -52.65096 -98.072231 -52.650924 -98.072228 -0.061194685 172.84978 
2.005e+009 -0.062213174 171.48233 -52.636964 -98.166901 -52.636928 -98.166899 -0.061220155 172.75656 
2.006e+009 -0.062241081 171.38666 -52.622963 -98.261596 -52.622928 -98.261593 -0.061245577 172.66332 
2.007e+009 -0.062269155 171.29096 -52.608959 -98.35631 -52.608924 -98.356307 -0.061271199 172.57006 
2.008e+009 -0.062297318 171.19525 -52.594954 -98.45104 -52.594918 -98.451037 -0.061296835 172.47679 
2.009e+009 -0.062325335 171.09951 -52.580945 -98.545789 -52.58091 -98.545786 -0.061322344 172.38351 
2.01e+009 -0.062353477 171.00375 -52.566933 -98.64056 -52.566898 -98.640558 -0.061347978 172.2902 
2.011e+009 -0.062381618 170.90797 -52.552917 -98.73535 -52.552882 -98.735347 -0.061373601 172.19688 
2.012e+009 -0.062409883 170.81217 -52.5389 -98.83016 -52.538864 -98.830158 -0.061399381 172.10354 
2.013e+009 -0.062438068 170.71635 -52.524879 -98.924988 -52.524844 -98.924985 -0.061424997 172.01018 
2.014e+009 -0.062466284 170.6205 -52.510854 -99.019838 -52.510819 -99.019836 -0.061450675 171.91681 
2.015e+009 -0.06249463 170.52464 -52.496827 -99.114706 -52.496792 -99.114704 -0.061476477 171.82342 
2.016e+009 -0.062523068 170.42875 -52.482797 -99.209593 -52.482762 -99.209591 -0.061502365 171.73001 
2.017e+009 -0.062551324 170.33284 -52.468764 -99.304503 -52.468729 -99.3045 -0.06152806 171.63658 
2.018e+009 -0.062579681 170.2369 -52.454727 -99.399433 -52.454692 -99.39943 -0.061553884 171.54314 
2.019e+009 -0.062608171 170.14095 -52.440687 -99.494384 -52.440652 -99.494381 -0.061579765 171.44968 
2.02e+009 -0.062636643 170.04497 -52.426645 -99.589348 -52.42661 -99.589346 -0.061605657 171.3562 
2.021e+009 -0.062665112 169.94898 -52.4126 -99.684335 -52.412565 -99.684332 -0.061631538 171.26271 
2.022e+009 -0.062693613 169.85295 -52.39855 -99.779347 -52.398515 -99.779345 -0.061657443 171.1692 
2.023e+009 -0.062722209 169.75691 -52.384497 -99.874379 -52.384462 -99.874377 -0.061683435 171.07566 
2.024e+009 -0.062750864 169.66085 -52.370443 -99.969424 -52.370408 -99.969421 -0.06170948 170.98212 
2.025e+009 -0.062779477 169.56476 -52.356385 -100.06449 -52.356351 -100.06449 -0.061735476 170.88856 
2.026e+009 -0.062808123 169.46865 -52.342323 -100.15958 -52.342288 -100.15958 -0.061761496 170.79497 
2.027e+009 -0.0628368 169.37251 -52.328258 -100.2547 -52.328223 -100.2547 -0.061787539 170.70137 
2.028e+009 -0.062865632 169.27636 -52.314191 -100.34982 -52.314156 -100.34982 -0.061813733 170.60775 
2.029e+009 -0.062894363 169.18019 -52.30012 -100.44497 -52.300086 -100.44497 -0.061839814 170.51412 
2.03e+009 -0.062923226 169.08398 -52.286046 -100.54015 -52.286011 -100.54014 -0.061866024 170.42046 
2.031e+009 -0.062952048 168.98776 -52.271968 -100.63534 -52.271933 -100.63534 -0.061892186 170.32679 
2.032e+009 -0.062980929 168.89152 -52.257887 -100.73055 -52.257853 -100.73055 -0.061918395 170.23311 
2.033e+009 -0.063009808 168.79525 -52.243804 -100.82578 -52.24377 -100.82578 -0.061944595 170.1394 
2.034e+009 -0.063038756 168.69896 -52.229716 -100.92104 -52.229682 -100.92104 -0.061970856 170.04568 
2.035e+009 -0.063067732 168.60264 -52.215625 -101.01632 -52.215591 -101.01631 -0.061997139 169.95193 
2.036e+009 -0.063096731 168.50631 -52.201533 -101.11161 -52.201498 -101.11161 -0.062023439 169.85817 
2.037e+009 -0.063125831 168.40995 -52.187436 -101.20692 -52.187402 -101.20692 -0.062049795 169.7644 
2.038e+009 -0.063154933 168.31357 -52.173335 -101.30226 -52.173301 -101.30226 -0.062076216 169.6706 
2.039e+009 -0.063184062 168.21716 -52.159231 -101.39762 -52.159197 -101.39762 -0.062102622 169.57678 
2.04e+009 -0.063213217 168.12074 -52.145125 -101.493 -52.145091 -101.493 -0.062129045 169.48295 
2.041e+009 -0.063242406 168.02429 -52.131016 -101.5884 -52.130982 -101.5884 -0.062155496 169.3891 
2.042e+009 -0.063271597 167.92781 -52.116901 -101.68382 -52.116867 -101.68382 -0.062181939 169.29522 
2.043e+009 -0.063300914 167.83131 -52.102785 -101.77927 -52.102751 -101.77926 -0.062208467 169.20133 
2.044e+009 -0.063330263 167.73479 -52.088665 -101.87473 -52.088631 -101.87473 -0.062235091 169.10743 
2.045e+009 -0.063359478 167.63825 -52.074542 -101.97021 -52.074508 -101.97021 -0.062261529 169.01351 
2.046e+009 -0.063388958 167.54168 -52.060415 -102.06572 -52.060381 -102.06572 -0.062288235 168.91956 
2.047e+009 -0.063418409 167.44509 -52.046284 -102.16125 -52.04625 -102.16125 -0.0623149 168.82559 
2.048e+009 -0.063447818 167.34847 -52.032151 -102.2568 -52.032117 -102.2568 -0.062341514 168.73162 
2.049e+009 -0.063477319 167.25184 -52.018015 -102.35236 -52.017982 -102.35236 -0.062368214 168.63762 
2.05e+009 -0.0635068 167.15518 -52.003874 -102.44796 -52.00384 -102.44796 -0.062394883 168.5436 
2.051e+009 -0.063536406 167.05849 -51.98973 -102.54357 -51.989696 -102.54357 -0.062421672 168.44957 
2.052e+009 -0.06356598 166.96178 -51.975583 -102.63921 -51.97555 -102.6392 -0.062448417 168.35551 
2.053e+009 -0.063595618 166.86505 -51.961434 -102.73486 -51.9614 -102.73486 -0.062475221 168.26144 
2.054e+009 -0.06362539 166.76829 -51.947279 -102.83054 -51.947246 -102.83054 -0.062502155 168.16735 
2.055e+009 -0.063655031 166.67151 -51.933121 -102.92624 -51.933088 -102.92624 -0.062528942 168.07323 
2.056e+009 -0.063684899 166.57471 -51.918961 -103.02196 -51.918928 -103.02196 -0.062555957 167.97911 
2.057e+009 -0.06371464 166.47788 -51.904797 -103.1177 -51.904764 -103.1177 -0.062582826 167.88496 
2.058e+009 -0.063744477 166.38103 -51.890629 -103.21347 -51.890596 -103.21347 -0.062609791 167.79079 
2.059e+009 -0.063774357 166.28415 -51.876457 -103.30926 -51.876424 -103.30926 -0.062636788 167.6966 
2.06e+009 -0.063804234 166.18725 -51.862283 -103.40507 -51.86225 -103.40506 -0.062663736 167.60239 
2.061e+009 -0.063834199 166.09033 -51.848106 -103.50089 -51.848072 -103.50089 -0.06269084 167.50817 
2.062e+009 -0.063864114 165.99338 -51.833923 -103.59675 -51.83389 -103.59675 -0.062717843 167.41392 
2.063e+009 -0.063894127 165.8964 -51.819737 -103.69263 -51.819704 -103.69263 -0.062744938 167.31966 
2.064e+009 -0.063924234 165.79941 -51.805549 -103.78852 -51.805516 -103.78852 -0.062772125 167.22538 
2.065e+009 -0.063954349 165.70239 -51.791357 -103.88444 -51.791324 -103.88444 -0.062799307 167.13108 
2.066e+009 -0.063984562 165.60534 -51.777161 -103.98038 -51.777128 -103.98038 -0.06282658 167.03675 
2.067e+009 -0.064014653 165.50826 -51.76296 -104.07635 -51.762927 -104.07635 -0.062853718 166.94241 
2.068e+009 -0.064044898 165.41118 -51.748758 -104.17233 -51.748725 -104.17233 -0.062880973 166.84805 
2.069e+009 -0.064075085 165.31405 -51.734552 -104.26834 -51.734519 -104.26834 -0.062908225 166.75367 
2.07e+009 -0.064105506 165.21691 -51.720341 -104.36437 -51.720309 -104.36437 -0.062935675 166.65927 
2.071e+009 -0.064135677 165.11974 -51.706127 -104.46043 -51.706094 -104.46043 -0.062962857 166.56485 
2.072e+009 -0.064166139 165.02254 -51.69191 -104.55651 -51.691877 -104.5565 -0.06299033 166.47042 
2.073e+009 -0.064196528 164.92533 -51.67769 -104.6526 -51.677657 -104.6526 -0.063017716 166.37596 
2.074e+009 -0.064226908 164.82808 -51.663464 -104.74873 -51.663431 -104.74872 -0.063045084 166.28148 
2.075e+009 -0.06425754 164.73081 -51.649235 -104.84487 -51.649202 -104.84487 -0.063072702 166.18698 
2.076e+009 -0.064287951 164.63352 -51.635003 -104.94104 -51.634971 -104.94103 -0.063100084 166.09247 
2.077e+009 -0.06431853 164.5362 -51.620768 -105.03723 -51.620735 -105.03722 -0.063127627 165.99793 
2.078e+009 -0.064349175 164.43886 -51.606528 -105.13344 -51.606496 -105.13344 -0.063155229 165.90338 
2.079e+009 -0.06437986 164.34149 -51.592285 -105.22968 -51.592252 -105.22967 -0.063182862 165.8088 
2.08e+009 -0.064410551 164.2441 -51.578038 -105.32593 -51.578006 -105.32593 -0.063210455 165.7142 
2.081e+009 -0.064441279 164.14667 -51.563788 -105.42221 -51.563756 -105.42221 -0.06323815 165.61959 
2.082e+009 -0.064472048 164.04923 -51.549534 -105.51852 -51.549501 -105.51852 -0.063265836 165.52495 
2.083e+009 -0.064502855 163.95176 -51.535275 -105.61485 -51.535242 -105.61485 -0.063293556 165.43029 
2.084e+009 -0.064533661 163.85426 -51.521014 -105.7112 -51.520982 -105.7112 -0.063321263 165.33562 
2.085e+009 -0.064564569 163.75674 -51.506749 -105.80757 -51.506717 -105.80757 -0.063349067 165.24093 
2.086e+009 -0.064595464 163.65919 -51.492479 -105.90397 -51.492446 -105.90397 -0.063376845 165.1462 
2.087e+009 -0.064626549 163.56162 -51.478205 -106.00039 -51.478173 -106.00039 -0.063404807 165.05147 
2.088e+009 -0.064657548 163.46402 -51.463929 -106.09684 -51.463897 -106.09683 -0.063432673 164.95671 
2.089e+009 -0.064688606 163.3664 -51.449649 -106.1933 -51.449617 -106.1933 -0.063460589 164.86194 
2.09e+009 -0.064719752 163.26875 -51.435364 -106.28979 -51.435332 -106.28979 -0.063488552 164.76714 
2.091e+009 -0.064750871 163.17107 -51.421075 -106.38631 -51.421043 -106.3863 -0.063516509 164.67232 
2.092e+009 -0.064781989 163.07337 -51.406783 -106.48285 -51.406752 -106.48284 -0.06354449 164.57748 
2.093e+009 -0.06481328 162.97565 -51.392488 -106.57941 -51.392456 -106.5794 -0.063572569 164.48262 
2.094e+009 -0.064844572 162.87789 -51.378188 -106.67599 -51.378156 -106.67599 -0.063600711 164.38775 
2.095e+009 -0.06487585 162.78011 -51.363883 -106.7726 -51.363852 -106.7726 -0.063628755 164.29285 
2.096e+009 -0.064907197 162.68231 -51.349576 -106.86923 -51.349545 -106.86923 -0.063656894 164.19793 
2.097e+009 -0.064938676 162.58448 -51.335265 -106.96589 -51.335234 -106.96588 -0.063685194 164.10299 
2.098e+009 -0.06496998 162.48662 -51.32095 -107.06257 -51.320918 -107.06257 -0.063713269 164.00802 
2.099e+009 -0.065001602 162.38873 -51.30663 -107.15927 -51.306598 -107.15927 -0.063741629 163.91304 
2.1e+009 -0.065033141 162.29082 -51.292307 -107.256 -51.292276 -107.256 -0.063769925 163.81804 
2.101e+009 -0.065064632 162.19289 -51.277981 -107.35275 -51.277949 -107.35275 -0.063798159 163.72302 
2.102e+009 -0.065096224 162.09492 -51.263649 -107.44953 -51.263618 -107.44953 -0.063826519 163.62797 
2.103e+009 -0.065127923 161.99693 -51.249313 -107.54633 -51.249282 -107.54633 -0.063854916 163.5329 
2.104e+009 -0.065159531 161.89892 -51.234975 -107.64315 -51.234944 -107.64315 -0.063883271 163.43782 
2.105e+009 -0.065191278 161.80088 -51.220633 -107.74 -51.220601 -107.74 -0.06391173 163.34271 
2.106e+009 -0.065223035 161.70281 -51.206285 -107.83687 -51.206254 -107.83687 -0.063940154 163.24758 
2.107e+009 -0.065254903 161.60471 -51.191933 -107.93377 -51.191902 -107.93377 -0.063968712 163.15243 
2.108e+009 -0.065286808 161.50658 -51.177579 -108.0307 -51.177548 -108.03069 -0.063997332 163.05726 
2.109e+009 -0.065318721 161.40844 -51.163221 -108.12764 -51.16319 -108.12763 -0.064025914 162.96207 
2.11e+009 -0.065350624 161.31026 -51.148857 -108.22461 -51.148826 -108.22461 -0.064054477 162.86685 
2.111e+009 -0.065382625 161.21205 -51.13449 -108.32161 -51.134459 -108.3216 -0.064083129 162.77162 
2.112e+009 -0.065414702 161.11382 -51.120119 -108.41862 -51.120088 -108.41862 -0.064111848 162.67636 
2.113e+009 -0.065446781 161.01557 -51.105745 -108.51566 -51.105714 -108.51566 -0.064140526 162.58109 
2.114e+009 -0.065478922 160.91728 -51.091365 -108.61274 -51.091334 -108.61273 -0.064169289 162.48579 
2.115e+009 -0.065511095 160.81897 -51.076981 -108.70983 -51.07695 -108.70983 -0.064198107 162.39047 
2.116e+009 -0.065543286 160.72063 -51.062594 -108.80695 -51.062563 -108.80695 -0.064226897 162.29513 
2.117e+009 -0.065575598 160.62227 -51.048203 -108.90409 -51.048172 -108.90408 -0.064255771 162.19977 
2.118e+009 -0.065607853 160.52387 -51.033807 -109.00126 -51.033776 -109.00126 -0.064284606 162.10438 
2.119e+009 -0.065640267 160.42545 -51.019406 -109.09846 -51.019375 -109.09845 -0.064313595 162.00897 
2.12e+009 -0.065672602 160.327 -51.005003 -109.19567 -51.004972 -109.19567 -0.064342489 161.91355 
2.121e+009 -0.065705039 160.22852 -50.990595 -109.29291 -50.990565 -109.29291 -0.064371514 161.8181 
2.122e+009 -0.065737584 160.13002 -50.976182 -109.39018 -50.976152 -109.39018 -0.064400567 161.72262 
2.123e+009 -0.065770146 160.03148 -50.961765 -109.48748 -50.961735 -109.48748 -0.064429664 161.62713 
2.124e+009 -0.065802657 159.93293 -50.947345 -109.58479 -50.947314 -109.58479 -0.064458724 161.53162 
2.125e+009 -0.065835336 159.83434 -50.932921 -109.68214 -50.93289 -109.68213 -0.064487919 161.43608 
2.126e+009 -0.065867946 159.73572 -50.918491 -109.77951 -50.918461 -109.77951 -0.064517027 161.34052 
2.127e+009 -0.065900688 159.63708 -50.904058 -109.8769 -50.904028 -109.8769 -0.064546262 161.24494 
2.128e+009 -0.065933472 159.53841 -50.88962 -109.97432 -50.88959 -109.97432 -0.064575529 161.14934 
2.129e+009 -0.065966276 159.43971 -50.875179 -110.07177 -50.875149 -110.07176 -0.0646048 161.05371 
2.13e+009 -0.065999124 159.34098 -50.860732 -110.16924 -50.860702 -110.16923 -0.064634078 160.95807 
2.131e+009 -0.066032106 159.24223 -50.846282 -110.26673 -50.846251 -110.26673 -0.064663514 160.8624 
2.132e+009 -0.066065023 159.14345 -50.831827 -110.36425 -50.831797 -110.36425 -0.064692868 160.76671 
2.133e+009 -0.06609807 159.04464 -50.817369 -110.4618 -50.817339 -110.4618 -0.064722347 160.671 
2.134e+009 -0.066131104 158.9458 -50.802905 -110.55938 -50.802875 -110.55937 -0.064751799 160.57526 
2.135e+009 -0.066164183 158.84693 -50.788438 -110.65697 -50.788408 -110.65697 -0.064781287 160.4795 
2.136e+009 -0.066197342 158.74803 -50.773965 -110.7546 -50.773935 -110.7546 -0.064810845 160.38372 
2.137e+009 -0.066230491 158.64911 -50.759489 -110.85225 -50.759459 -110.85225 -0.064840409 160.28792 
2.138e+009 -0.066263746 158.55015 -50.745008 -110.94993 -50.744978 -110.94993 -0.064870009 160.19209 
2.139e+009 -0.066297018 158.45117 -50.730522 -111.04763 -50.730493 -111.04763 -0.064899678 160.09624 
2.14e+009 -0.066330306 158.35216 -50.716034 -111.14536 -50.716004 -111.14536 -0.06492932 160.00037 
2.141e+009 -0.066363731 158.25312 -50.70154 -111.24311 -50.701511 -111.24311 -0.06495906 159.90448 
2.142e+009 -0.066397206 158.15405 -50.687041 -111.3409 -50.687012 -111.34089 -0.064988871 159.80856 
2.143e+009 -0.066430555 158.05495 -50.672539 -111.4387 -50.672509 -111.4387 -0.065018569 159.71263 
2.144e+009 -0.066464155 157.95583 -50.658031 -111.53654 -50.658002 -111.53654 -0.065048485 159.61666 
2.145e+009 -0.066497718 157.85667 -50.64352 -111.6344 -50.643491 -111.6344 -0.065078318 159.52068 
2.146e+009 -0.066531325 157.75749 -50.629004 -111.73229 -50.628974 -111.73228 -0.065108213 159.42467 
2.147e+009 -0.066565044 157.65827 -50.614484 -111.8302 -50.614454 -111.8302 -0.065138216 159.32864 
2.148e+009 -0.066598694 157.55903 -50.599958 -111.92814 -50.599929 -111.92814 -0.065168131 159.23259 
2.149e+009 -0.066632421 157.45976 -50.585429 -112.0261 -50.585399 -112.0261 -0.065198147 159.13651 
2.15e+009 -0.06666626 157.36045 -50.570894 -112.1241 -50.570864 -112.1241 -0.065228199 159.04041 
2.151e+009 -0.066700117 157.26113 -50.556355 -112.22212 -50.556326 -112.22211 -0.065258323 158.94429 
2.152e+009 -0.066733993 157.16177 -50.541813 -112.32016 -50.541784 -112.32016 -0.065288423 158.84815 
2.153e+009 -0.066767945 157.06238 -50.527266 -112.41823 -50.527237 -112.41823 -0.065318594 158.75198 
2.154e+009 -0.066802009 156.96296 -50.512714 -112.51633 -50.512685 -112.51633 -0.065348826 158.65579 
2.155e+009 -0.066836046 156.86351 -50.498156 -112.61446 -50.498127 -112.61446 -0.065379083 158.55957 
2.156e+009 -0.066870123 156.76403 -50.483595 -112.71261 -50.483565 -112.71261 -0.065409338 158.46334 
2.157e+009 -0.066904334 156.66453 -50.46903 -112.81079 -50.469001 -112.81079 -0.065439719 158.36708 
2.158e+009 -0.06693855 156.56499 -50.454457 -112.90901 -50.454428 -112.909 -0.065470061 158.27079 
2.159e+009 -0.066972781 156.46542 -50.439882 -113.00724 -50.439853 -113.00724 -0.065500468 158.17448 
2.16e+009 -0.067007124 156.36582 -50.425303 -113.1055 -50.425274 -113.1055 -0.065530915 158.07815 
2.161e+009 -0.067041449 156.2662 -50.410719 -113.20378 -50.41069 -113.20378 -0.065561362 157.9818 
2.162e+009 -0.067075894 156.16655 -50.396131 -113.3021 -50.396102 -113.30209 -0.065591922 157.88542 
2.163e+009 -0.067110311 156.06685 -50.381534 -113.40045 -50.381506 -113.40045 -0.065622434 157.78901 
2.164e+009 -0.067144823 155.96714 -50.366937 -113.49882 -50.366908 -113.49881 -0.065653065 157.69259 
2.165e+009 -0.067179422 155.86739 -50.352335 -113.59721 -50.352306 -113.59721 -0.065683712 157.59614 
2.166e+009 -0.067214022 155.76761 -50.337724 -113.69564 -50.337695 -113.69564 -0.065714408 157.49966 
2.167e+009 -0.067248642 155.6678 -50.323112 -113.7941 -50.323083 -113.79409 -0.065745077 157.40317 
2.168e+009 -0.067283449 155.56797 -50.308495 -113.89257 -50.308467 -113.89257 -0.065775901 157.30665 
2.169e+009 -0.06731817 155.4681 -50.293874 -113.99108 -50.293845 -113.99108 -0.06580665 157.21011 
2.17e+009 -0.067353005 155.3682 -50.279247 -114.08962 -50.279219 -114.08961 -0.065837501 157.11354 
2.171e+009 -0.067387864 155.26827 -50.264614 -114.18818 -50.264585 -114.18818 -0.065868367 157.01694 
2.172e+009 -0.067422779 155.16831 -50.249978 -114.28677 -50.249949 -114.28677 -0.065899308 156.92033 
2.173e+009 -0.067457802 155.06832 -50.235337 -114.38539 -50.235308 -114.38539 -0.065930282 156.82369 
2.174e+009 -0.067492798 154.96829 -50.220689 -114.48405 -50.22066 -114.48404 -0.065961278 156.72701 
2.175e+009 -0.067527895 154.86824 -50.206039 -114.58272 -50.20601 -114.58272 -0.065992335 156.63033 
2.176e+009 -0.067562992 154.76816 -50.191383 -114.68142 -50.191354 -114.68142 -0.066023346 156.53362 
2.177e+009 -0.067598171 154.66805 -50.176723 -114.78015 -50.176694 -114.78015 -0.06605446 156.43688 
2.178e+009 -0.067633404 154.56791 -50.162058 -114.87891 -50.162029 -114.8789 -0.066085643 156.34012 
2.179e+009 -0.067668704 154.46772 -50.147385 -114.9777 -50.147357 -114.9777 -0.066116825 156.24333 
2.18e+009 -0.067704015 154.36751 -50.132711 -115.07652 -50.132682 -115.07652 -0.066148063 156.14652 
2.181e+009 -0.067739412 154.26728 -50.118031 -115.17536 -50.118002 -115.17536 -0.066179345 156.04969 
2.182e+009 -0.067774931 154.167 -50.103344 -115.27424 -50.103316 -115.27423 -0.066210711 155.95282 
2.183e+009 -0.067810358 154.0667 -50.088653 -115.37314 -50.088625 -115.37314 -0.066242024 155.85593 
2.184e+009 -0.067845899 153.96637 -50.073959 -115.47207 -50.07393 -115.47207 -0.066273383 155.75903 
2.185e+009 -0.067881486 153.86601 -50.05926 -115.57102 -50.059232 -115.57102 -0.066304808 155.6621 
2.186e+009 -0.067917241 153.76562 -50.044555 -115.67001 -50.044527 -115.67001 -0.06633639 155.56514 
2.187e+009 -0.067952926 153.66518 -50.029843 -115.76903 -50.029815 -115.76903 -0.066367885 155.46815 
2.188e+009 -0.067988656 153.56473 -50.015129 -115.86807 -50.015101 -115.86807 -0.06639944 155.37115 
2.189e+009 -0.068024473 153.46424 -50.000408 -115.96715 -50.00038 -115.96714 -0.066431015 155.27411 
2.19e+009 -0.068060328 153.36371 -49.985681 -116.06626 -49.985653 -116.06625 -0.06646264 155.17705 
2.191e+009 -0.068096312 153.26316 -49.970951 -116.16538 -49.970924 -116.16538 -0.066494387 155.07997 
2.192e+009 -0.068132241 153.16257 -49.956217 -116.26454 -49.956189 -116.26454 -0.066526094 154.98286 
2.193e+009 -0.068168342 153.06196 -49.941477 -116.36373 -49.941449 -116.36372 -0.066557902 154.88573 
2.194e+009 -0.06820446 152.96131 -49.926732 -116.46294 -49.926704 -116.46294 -0.066589774 154.78858 
2.195e+009 -0.0682406 152.86062 -49.911979 -116.5622 -49.911952 -116.5622 -0.066621596 154.69139 
2.196e+009 -0.068276764 152.75991 -49.897224 -116.66147 -49.897196 -116.66147 -0.066653482 154.59418 
2.197e+009 -0.068313058 152.65917 -49.882463 -116.76077 -49.882436 -116.76077 -0.06668544 154.49695 
2.198e+009 -0.068349346 152.55838 -49.867695 -116.86012 -49.867668 -116.86012 -0.066717391 154.39968 
2.199e+009 -0.068385761 152.45757 -49.852924 -116.95948 -49.852896 -116.95948 -0.066749466 154.3024 
2.2e+009 -0.068422158 152.35672 -49.838148 -117.05887 -49.838121 -117.05887 -0.066781507 154.20509 
2.201e+009 -0.068458662 152.25585 -49.823368 -117.15829 -49.82334 -117.15829 -0.066813642 154.10776 
2.202e+009 -0.068495196 152.15495 -49.808581 -117.25774 -49.808553 -117.25774 -0.066845797 154.0104 
2.203e+009 -0.068531832 152.054 -49.793787 -117.35724 -49.793759 -117.35723 -0.066878037 153.913 
2.204e+009 -0.068568423 151.95303 -49.778991 -117.45674 -49.778963 -117.45674 -0.066910249 153.8156 
2.205e+009 -0.068605166 151.85202 -49.764188 -117.55628 -49.76416 -117.55628 -0.066942545 153.71816 
2.206e+009 -0.068641924 151.75097 -49.749378 -117.65586 -49.749351 -117.65586 -0.066974866 153.62069 
2.207e+009 -0.068678777 151.64991 -49.734566 -117.75546 -49.734539 -117.75546 -0.067007304 153.52321 
2.208e+009 -0.068715566 151.5488 -49.719747 -117.85509 -49.71972 -117.85509 -0.067039599 153.42569 
2.209e+009 -0.068752549 151.44766 -49.704924 -117.95475 -49.704897 -117.95475 -0.067072108 153.32815 
2.21e+009 -0.068789526 151.3465 -49.690096 -118.05444 -49.690068 -118.05444 -0.067104599 153.23059 
2.211e+009 -0.068826585 151.24528 -49.675259 -118.15417 -49.675232 -118.15416 -0.067137154 153.13299 
2.212e+009 -0.068863718 151.14405 -49.660419 -118.25392 -49.660392 -118.25391 -0.067169776 153.03537 
2.213e+009 -0.068900853 151.04278 -49.645575 -118.35369 -49.645548 -118.35369 -0.067202381 152.93774 
2.214e+009 -0.068938138 150.94147 -49.630722 -118.45352 -49.630695 -118.45351 -0.067235125 152.84005 
2.215e+009 -0.06897535 150.84013 -49.615866 -118.55336 -49.615839 -118.55335 -0.067267779 152.74236 
2.216e+009 -0.069012753 150.73876 -49.601005 -118.65322 -49.600978 -118.65322 -0.067300613 152.64464 
2.217e+009 -0.069050136 150.63736 -49.586139 -118.75313 -49.586112 -118.75312 -0.067333413 152.54689 
2.218e+009 -0.06908755 150.53592 -49.571267 -118.85306 -49.571241 -118.85306 -0.067366235 152.44912 
2.219e+009 -0.069125149 150.43445 -49.556387 -118.95303 -49.55636 -118.95303 -0.067399219 152.35131 
2.22e+009 -0.069162741 150.33294 -49.541504 -119.05302 -49.541478 -119.05302 -0.067432216 152.25349 
2.221e+009 -0.06920032 150.2314 -49.526616 -119.15305 -49.52659 -119.15304 -0.067465131 152.15563 
2.222e+009 -0.069237993 150.12982 -49.51172 -119.25311 -49.511693 -119.25311 -0.067498143 152.05775 
2.223e+009 -0.069275777 150.02822 -49.49682 -119.35319 -49.496794 -119.35319 -0.067531262 151.95984 
2.224e+009 -0.069313647 149.92658 -49.481916 -119.45331 -49.481889 -119.45331 -0.067564457 151.86191 
2.225e+009 -0.069351449 149.8249 -49.467005 -119.55346 -49.466978 -119.55345 -0.067597584 151.76395 
2.226e+009 -0.069389368 149.72319 -49.452089 -119.65364 -49.452062 -119.65363 -0.067630766 151.66596 
2.227e+009 -0.069427429 149.62145 -49.437165 -119.75385 -49.437139 -119.75385 -0.067664104 151.56795 
2.228e+009 -0.069465401 149.51967 -49.422237 -119.85409 -49.422211 -119.85409 -0.067697333 151.46991 
2.229e+009 -0.069503513 149.41785 -49.407304 -119.95437 -49.407278 -119.95436 -0.067730693 151.37184 
2.23e+009 -0.069541662 149.316 -49.392364 -120.05467 -49.392337 -120.05467 -0.067764072 151.27374 
2.231e+009 -0.069579947 149.21412 -49.377419 -120.15501 -49.377393 -120.155 -0.067797579 151.17562 
2.232e+009 -0.069618254 149.11221 -49.362469 -120.25537 -49.362443 -120.25537 -0.067831091 151.07747 
2.233e+009 -0.06965656 149.01026 -49.347514 -120.35577 -49.347487 -120.35577 -0.067864583 150.9793 
2.234e+009 -0.069694965 148.90828 -49.332553 -120.4562 -49.332526 -120.45619 -0.067898161 150.8811 
2.235e+009 -0.069733466 148.80625 -49.317582 -120.55667 -49.317556 -120.55666 -0.067931824 150.78286 
2.236e+009 -0.069772021 148.70419 -49.30261 -120.65716 -49.302584 -120.65715 -0.067965525 150.68461 
2.237e+009 -0.069810639 148.60211 -49.287632 -120.75768 -49.287605 -120.75768 -0.067999273 150.58633 
2.238e+009 -0.069849282 148.49998 -49.272644 -120.85824 -49.272618 -120.85824 -0.068033035 150.488 
2.239e+009 -0.069887989 148.39782 -49.257655 -120.95883 -49.257629 -120.95883 -0.068066836 150.38967 
2.24e+009 -0.069926783 148.29562 -49.242659 -121.05945 -49.242633 -121.05945 -0.068100717 150.29131 
2.241e+009 -0.069965633 148.1934 -49.227657 -121.16009 -49.227631 -121.16009 -0.068134638 150.19292 
2.242e+009 -0.070004464 148.09113 -49.212649 -121.26078 -49.212623 -121.26078 -0.068168518 150.0945 
2.243e+009 -0.070043511 147.98882 -49.197634 -121.3615 -49.197608 -121.3615 -0.068202611 149.99604 
2.244e+009 -0.070082544 147.88649 -49.182614 -121.46225 -49.182588 -121.46224 -0.068236667 149.89757 
2.245e+009 -0.070121637 147.78412 -49.167589 -121.56303 -49.167563 -121.56302 -0.068270771 149.79906 
2.246e+009 -0.070160762 147.6817 -49.152555 -121.66385 -49.15253 -121.66384 -0.06830489 149.70053 
2.247e+009 -0.070200012 147.57926 -49.137518 -121.76469 -49.137492 -121.76468 -0.068339119 149.60197 
2.248e+009 -0.070239337 147.47678 -49.122475 -121.86556 -49.12245 -121.86556 -0.068373411 149.50338 
2.249e+009 -0.070278622 147.37427 -49.107427 -121.96647 -49.107401 -121.96646 -0.068407644 149.40477 
2.25e+009 -0.070318106 147.27172 -49.092372 -122.06741 -49.092346 -122.06741 -0.068442036 149.30613 
2.251e+009 -0.070357516 147.16913 -49.077308 -122.16839 -49.077282 -122.16839 -0.068476386 149.20745 
2.252e+009 -0.070397103 147.06651 -49.062242 -122.26939 -49.062216 -122.26939 -0.068510879 149.10876 
2.253e+009 -0.070436694 146.96385 -49.047169 -122.37043 -49.047143 -122.37043 -0.068545355 149.01003 
2.254e+009 -0.070476378 146.86115 -49.032087 -122.47151 -49.032062 -122.47151 -0.068579915 148.91127 
2.255e+009 -0.070516099 146.75842 -49.017002 -122.57262 -49.016977 -122.57261 -0.068614484 148.81249 
2.256e+009 -0.070555822 146.65565 -49.001911 -122.67375 -49.001886 -122.67375 -0.068649043 148.71368 
2.257e+009 -0.070595777 146.55285 -48.986815 -122.77492 -48.986789 -122.77492 -0.068683826 148.61484 
2.258e+009 -0.07063563 146.45002 -48.971711 -122.87612 -48.971685 -122.87612 -0.068718483 148.51598 
2.259e+009 -0.070675712 146.34713 -48.956599 -122.97737 -48.956573 -122.97737 -0.068753362 148.41707 
2.26e+009 -0.070715721 146.24422 -48.941484 -123.07863 -48.941458 -123.07863 -0.068788143 148.31815 
2.261e+009 -0.070755838 146.14127 -48.926361 -123.17994 -48.926336 -123.17993 -0.068823019 148.2192 
2.262e+009 -0.070796048 146.03828 -48.911232 -123.28128 -48.911206 -123.28128 -0.068857973 148.12021 
2.263e+009 -0.070836301 145.93526 -48.896098 -123.38265 -48.896072 -123.38264 -0.068892953 148.0212 
2.264e+009 -0.070876577 145.8322 -48.880957 -123.48405 -48.880932 -123.48405 -0.068927937 147.92216 
2.265e+009 -0.070916987 145.72911 -48.865811 -123.58548 -48.865786 -123.58548 -0.068963042 147.8231 
2.266e+009 -0.070957447 145.62597 -48.850658 -123.68695 -48.850633 -123.68695 -0.068998156 147.724 
2.267e+009 -0.07099794 145.52279 -48.835497 -123.78846 -48.835472 -123.78846 -0.069033338 147.62487 
2.268e+009 -0.071038566 145.41959 -48.820331 -123.89 -48.820306 -123.88999 -0.069068607 147.52572 
2.269e+009 -0.071079217 145.31634 -48.805159 -123.99157 -48.805134 -123.99156 -0.06910389 147.42654 
2.27e+009 -0.07111992 145.21305 -48.789979 -124.09318 -48.789954 -124.09318 -0.0691392 147.32732 
2.271e+009 -0.071160692 145.10973 -48.774795 -124.19482 -48.77477 -124.19481 -0.069174567 147.22808 
2.272e+009 -0.071201578 145.00638 -48.759604 -124.29648 -48.759579 -124.29648 -0.069210039 147.12881 
2.273e+009 -0.071242469 144.90299 -48.744407 -124.39819 -48.744383 -124.39819 -0.069245459 147.02952 
2.274e+009 -0.071283381 144.79956 -48.729204 -124.49993 -48.729179 -124.49993 -0.069280939 146.93019 
2.275e+009 -0.071324514 144.69608 -48.713992 -124.60171 -48.713967 -124.60171 -0.069316575 146.83083 
2.276e+009 -0.071365645 144.59257 -48.698775 -124.70352 -48.698751 -124.70351 -0.069352246 146.73144 
2.277e+009 -0.07140684 144.48903 -48.683553 -124.80535 -48.683528 -124.80535 -0.069387937 146.63203 
2.278e+009 -0.0714481 144.38544 -48.668321 -124.90724 -48.668297 -124.90724 -0.069423645 146.53258 
2.279e+009 -0.071489421 144.28181 -48.653086 -125.00915 -48.653061 -125.00915 -0.069459453 146.4331 
2.28e+009 -0.071530841 144.17816 -48.637844 -125.11109 -48.637819 -125.11109 -0.069495316 146.3336 
2.281e+009 -0.071572286 144.07446 -48.622595 -125.21307 -48.62257 -125.21307 -0.069531186 146.23407 
2.282e+009 -0.07161385 143.97073 -48.60734 -125.31508 -48.607316 -125.31508 -0.069567161 146.13451 
2.283e+009 -0.071655429 143.86695 -48.592075 -125.41714 -48.592051 -125.41714 -0.069603129 146.03491 
2.284e+009 -0.071697079 143.76313 -48.576807 -125.51923 -48.576782 -125.51922 -0.06963915 145.93528 
2.285e+009 -0.07173884 143.65929 -48.561533 -125.62134 -48.561508 -125.62134 -0.069675268 145.83563 
2.286e+009 -0.071780637 143.55539 -48.546249 -125.72351 -48.546224 -125.7235 -0.069711403 145.73594 
2.287e+009 -0.071822553 143.45146 -48.53096 -125.82569 -48.530936 -125.82569 -0.069747642 145.63624 
2.288e+009 -0.071864471 143.3475 -48.515665 -125.92791 -48.515641 -125.92791 -0.069783859 145.53649 
2.289e+009 -0.071906483 143.2435 -48.500364 -126.03017 -48.50034 -126.03017 -0.069820137 145.43672 
2.29e+009 -0.071948599 143.13945 -48.485056 -126.13246 -48.485032 -126.13246 -0.069856543 145.33692 
2.291e+009 -0.071990778 143.03536 -48.469738 -126.2348 -48.469714 -126.2348 -0.06989297 145.23708 